11264
Atoms. Timestep: 0
1 23.811 0 0
1 24.6047 0.793701 0
1 24.6047 0 0.793701
1 23.811 0.793701 0.793701
1 25.3984 0 0
1 26.1921 0.793701 0
1 26.1921 0 0.793701
1 25.3984 0.793701 0.793701
1 26.9858 0 0
1 27.7795 0.793701 0
1 27.7795 0 0.793701
1 26.9858 0.793701 0.793701
1 28.5732 0 0
1 29.3669 0.793701 0
1 29.3669 0 0.793701
1 28.5732 0.793701 0.793701
1 30.1606 0 0
1 30.9543 0.793701 0
1 30.9543 0 0.793701
1 30.1606 0.793701 0.793701
1 23.811 1.5874 0
1 24.6047 2.3811 0
1 24.6047 1.5874 0.793701
1 23.811 2.3811 0.793701
1 25.3984 1.5874 0
1 26.1921 2.3811 0
1 26.1921 1.5874 0.793701
1 25.3984 2.3811 0.793701
1 26.9858 1.5874 0
1 27.7795 2.3811 0
1 27.7795 1.5874 0.793701
1 26.9858 2.3811 0.793701
1 28.5732 1.5874 0
1 29.3669 2.3811 0
1 29.3669 1.5874 0.793701
1 28.5732 2.3811 0.793701
1 30.1606 1.5874 0
1 30.9543 2.3811 0
1 30.9543 1.5874 0.793701
1 30.1606 2.3811 0.793701
1 23.811 3.1748 0
1 24.6047 3.9685 0
1 24.6047 3.1748 0.793701
1 23.811 3.9685 0.793701
1 25.3984 3.1748 0
1 26.1921 3.9685 0
1 26.1921 3.1748 0.793701
1 25.3984 3.9685 0.793701
1 26.9858 3.1748 0
1 27.7795 3.9685 0
1 27.7795 3.1748 0.793701
1 26.9858 3.9685 0.793701
1 28.5732 3.1748 0
1 29.3669 3.9685 0
1 29.3669 3.1748 0.793701
1 28.5732 3.9685 0.793701
1 30.1606 3.1748 0
1 30.9543 3.9685 0
1 30.9543 3.1748 0.793701
1 30.1606 3.9685 0.793701
1 23.811 4.7622 0
1 24.6047 5.5559 0
1 24.6047 4.7622 0.793701
1 23.811 5.5559 0.793701
1 25.3984 4.7622 0
1 26.1921 5.5559 0
1 26.1921 4.7622 0.793701
1 25.3984 5.5559 0.793701
1 26.9858 4.7622 0
1 27.7795 5.5559 0
1 27.7795 4.7622 0.793701
1 26.9858 5.5559 0.793701
1 28.5732 4.7622 0
1 29.3669 5.5559 0
1 29.3669 4.7622 0.793701
1 28.5732 5.5559 0.793701
1 30.1606 4.7622 0
1 30.9543 5.5559 0
1 30.9543 4.7622 0.793701
1 30.1606 5.5559 0.793701
1 23.811 6.3496 0
1 24.6047 7.1433 0
1 24.6047 6.3496 0.793701
1 23.811 7.1433 0.793701
1 25.3984 6.3496 0
1 26.1921 7.1433 0
1 26.1921 6.3496 0.793701
1 25.3984 7.1433 0.793701
1 26.9858 6.3496 0
1 27.7795 7.1433 0
1 27.7795 6.3496 0.793701
1 26.9858 7.1433 0.793701
1 28.5732 6.3496 0
1 29.3669 7.1433 0
1 29.3669 6.3496 0.793701
1 28.5732 7.1433 0.793701
1 30.1606 6.3496 0
1 30.9543 7.1433 0
1 30.9543 6.3496 0.793701
1 30.1606 7.1433 0.793701
1 23.811 7.93701 0
1 24.6047 8.73071 0
1 24.6047 7.93701 0.793701
1 23.811 8.73071 0.793701
1 25.3984 7.93701 0
1 26.1921 8.73071 0
1 26.1921 7.93701 0.793701
1 25.3984 8.73071 0.793701
1 26.9858 7.93701 0
1 27.7795 8.73071 0
1 27.7795 7.93701 0.793701
1 26.9858 8.73071 0.793701
1 28.5732 7.93701 0
1 29.3669 8.73071 0
1 29.3669 7.93701 0.793701
1 28.5732 8.73071 0.793701
1 30.1606 7.93701 0
1 30.9543 8.73071 0
1 30.9543 7.93701 0.793701
1 30.1606 8.73071 0.793701
1 23.811 9.52441 0
1 24.6047 10.3181 0
1 24.6047 9.52441 0.793701
1 23.811 10.3181 0.793701
1 25.3984 9.52441 0
1 26.1921 10.3181 0
1 26.1921 9.52441 0.793701
1 25.3984 10.3181 0.793701
1 26.9858 9.52441 0
1 27.7795 10.3181 0
1 27.7795 9.52441 0.793701
1 26.9858 10.3181 0.793701
1 28.5732 9.52441 0
1 29.3669 10.3181 0
1 29.3669 9.52441 0.793701
1 28.5732 10.3181 0.793701
1 30.1606 9.52441 0
1 30.9543 10.3181 0
1 30.9543 9.52441 0.793701
1 30.1606 10.3181 0.793701
1 23.811 11.1118 0
1 24.6047 11.9055 0
1 24.6047 11.1118 0.793701
1 23.811 11.9055 0.793701
1 25.3984 11.1118 0
1 26.1921 11.9055 0
1 26.1921 11.1118 0.793701
1 25.3984 11.9055 0.793701
1 26.9858 11.1118 0
1 27.7795 11.9055 0
1 27.7795 11.1118 0.793701
1 26.9858 11.9055 0.793701
1 28.5732 11.1118 0
1 29.3669 11.9055 0
1 29.3669 11.1118 0.793701
1 28.5732 11.9055 0.793701
1 30.1606 11.1118 0
1 30.9543 11.9055 0
1 30.9543 11.1118 0.793701
1 30.1606 11.9055 0.793701
1 23.811 12.6992 0
1 24.6047 13.4929 0
1 24.6047 12.6992 0.793701
1 23.811 13.4929 0.793701
1 25.3984 12.6992 0
1 26.1921 13.4929 0
1 26.1921 12.6992 0.793701
1 25.3984 13.4929 0.793701
1 26.9858 12.6992 0
1 27.7795 13.4929 0
1 27.7795 12.6992 0.793701
1 26.9858 13.4929 0.793701
1 28.5732 12.6992 0
1 29.3669 13.4929 0
1 29.3669 12.6992 0.793701
1 28.5732 13.4929 0.793701
1 30.1606 12.6992 0
1 30.9543 13.4929 0
1 30.9543 12.6992 0.793701
1 30.1606 13.4929 0.793701
1 23.811 14.2866 0
1 24.6047 15.0803 0
1 24.6047 14.2866 0.793701
1 23.811 15.0803 0.793701
1 25.3984 14.2866 0
1 26.1921 15.0803 0
1 26.1921 14.2866 0.793701
1 25.3984 15.0803 0.793701
1 26.9858 14.2866 0
1 27.7795 15.0803 0
1 27.7795 14.2866 0.793701
1 26.9858 15.0803 0.793701
1 28.5732 14.2866 0
1 29.3669 15.0803 0
1 29.3669 14.2866 0.793701
1 28.5732 15.0803 0.793701
1 30.1606 14.2866 0
1 30.9543 15.0803 0
1 30.9543 14.2866 0.793701
1 30.1606 15.0803 0.793701
1 23.811 15.874 0
1 24.6047 16.6677 0
1 24.6047 15.874 0.793701
1 23.811 16.6677 0.793701
1 25.3984 15.874 0
1 26.1921 16.6677 0
1 26.1921 15.874 0.793701
1 25.3984 16.6677 0.793701
1 26.9858 15.874 0
1 27.7795 16.6677 0
1 27.7795 15.874 0.793701
1 26.9858 16.6677 0.793701
1 28.5732 15.874 0
1 29.3669 16.6677 0
1 29.3669 15.874 0.793701
1 28.5732 16.6677 0.793701
1 30.1606 15.874 0
1 30.9543 16.6677 0
1 30.9543 15.874 0.793701
1 30.1606 16.6677 0.793701
1 23.811 17.4614 0
1 24.6047 18.2551 0
1 24.6047 17.4614 0.793701
1 23.811 18.2551 0.793701
1 25.3984 17.4614 0
1 26.1921 18.2551 0
1 26.1921 17.4614 0.793701
1 25.3984 18.2551 0.793701
1 26.9858 17.4614 0
1 27.7795 18.2551 0
1 27.7795 17.4614 0.793701
1 26.9858 18.2551 0.793701
1 28.5732 17.4614 0
1 29.3669 18.2551 0
1 29.3669 17.4614 0.793701
1 28.5732 18.2551 0.793701
1 30.1606 17.4614 0
1 30.9543 18.2551 0
1 30.9543 17.4614 0.793701
1 30.1606 18.2551 0.793701
1 23.811 19.0488 0
1 24.6047 19.8425 0
1 24.6047 19.0488 0.793701
1 23.811 19.8425 0.793701
1 25.3984 19.0488 0
1 26.1921 19.8425 0
1 26.1921 19.0488 0.793701
1 25.3984 19.8425 0.793701
1 26.9858 19.0488 0
1 27.7795 19.8425 0
1 27.7795 19.0488 0.793701
1 26.9858 19.8425 0.793701
1 28.5732 19.0488 0
1 29.3669 19.8425 0
1 29.3669 19.0488 0.793701
1 28.5732 19.8425 0.793701
1 30.1606 19.0488 0
1 30.9543 19.8425 0
1 30.9543 19.0488 0.793701
1 30.1606 19.8425 0.793701
1 23.811 20.6362 0
1 24.6047 21.4299 0
1 24.6047 20.6362 0.793701
1 23.811 21.4299 0.793701
1 25.3984 20.6362 0
1 26.1921 21.4299 0
1 26.1921 20.6362 0.793701
1 25.3984 21.4299 0.793701
1 26.9858 20.6362 0
1 27.7795 21.4299 0
1 27.7795 20.6362 0.793701
1 26.9858 21.4299 0.793701
1 28.5732 20.6362 0
1 29.3669 21.4299 0
1 29.3669 20.6362 0.793701
1 28.5732 21.4299 0.793701
1 30.1606 20.6362 0
1 30.9543 21.4299 0
1 30.9543 20.6362 0.793701
1 30.1606 21.4299 0.793701
1 23.811 22.2236 0
1 24.6047 23.0173 0
1 24.6047 22.2236 0.793701
1 23.811 23.0173 0.793701
1 25.3984 22.2236 0
1 26.1921 23.0173 0
1 26.1921 22.2236 0.793701
1 25.3984 23.0173 0.793701
1 26.9858 22.2236 0
1 27.7795 23.0173 0
1 27.7795 22.2236 0.793701
1 26.9858 23.0173 0.793701
1 28.5732 22.2236 0
1 29.3669 23.0173 0
1 29.3669 22.2236 0.793701
1 28.5732 23.0173 0.793701
1 30.1606 22.2236 0
1 30.9543 23.0173 0
1 30.9543 22.2236 0.793701
1 30.1606 23.0173 0.793701
1 23.811 23.811 0
1 24.6047 24.6047 0
1 24.6047 23.811 0.793701
1 23.811 24.6047 0.793701
1 25.3984 23.811 0
1 26.1921 24.6047 0
1 26.1921 23.811 0.793701
1 25.3984 24.6047 0.793701
1 26.9858 23.811 0
1 27.7795 24.6047 0
1 27.7795 23.811 0.793701
1 26.9858 24.6047 0.793701
1 28.5732 23.811 0
1 29.3669 24.6047 0
1 29.3669 23.811 0.793701
1 28.5732 24.6047 0.793701
1 30.1606 23.811 0
1 30.9543 24.6047 0
1 30.9543 23.811 0.793701
1 30.1606 24.6047 0.793701
1 23.811 0 1.5874
1 24.6047 0.793701 1.5874
1 24.6047 0 2.3811
1 23.811 0.793701 2.3811
1 25.3984 0 1.5874
1 26.1921 0.793701 1.5874
1 26.1921 0 2.3811
1 25.3984 0.793701 2.3811
1 26.9858 0 1.5874
1 27.7795 0.793701 1.5874
1 27.7795 0 2.3811
1 26.9858 0.793701 2.3811
1 28.5732 0 1.5874
1 29.3669 0.793701 1.5874
1 29.3669 0 2.3811
1 28.5732 0.793701 2.3811
1 30.1606 0 1.5874
1 30.9543 0.793701 1.5874
1 30.9543 0 2.3811
1 30.1606 0.793701 2.3811
1 23.811 1.5874 1.5874
1 24.6047 2.3811 1.5874
1 24.6047 1.5874 2.3811
1 23.811 2.3811 2.3811
1 25.3984 1.5874 1.5874
1 26.1921 2.3811 1.5874
1 26.1921 1.5874 2.3811
1 25.3984 2.3811 2.3811
1 26.9858 1.5874 1.5874
1 27.7795 2.3811 1.5874
1 27.7795 1.5874 2.3811
1 26.9858 2.3811 2.3811
1 28.5732 1.5874 1.5874
1 29.3669 2.3811 1.5874
1 29.3669 1.5874 2.3811
1 28.5732 2.3811 2.3811
1 30.1606 1.5874 1.5874
1 30.9543 2.3811 1.5874
1 30.9543 1.5874 2.3811
1 30.1606 2.3811 2.3811
1 23.811 3.1748 1.5874
1 24.6047 3.9685 1.5874
1 24.6047 3.1748 2.3811
1 23.811 3.9685 2.3811
1 25.3984 3.1748 1.5874
1 26.1921 3.9685 1.5874
1 26.1921 3.1748 2.3811
1 25.3984 3.9685 2.3811
1 26.9858 3.1748 1.5874
1 27.7795 3.9685 1.5874
1 27.7795 3.1748 2.3811
1 26.9858 3.9685 2.3811
1 28.5732 3.1748 1.5874
1 29.3669 3.9685 1.5874
1 29.3669 3.1748 2.3811
1 28.5732 3.9685 2.3811
1 30.1606 3.1748 1.5874
1 30.9543 3.9685 1.5874
1 30.9543 3.1748 2.3811
1 30.1606 3.9685 2.3811
1 23.811 4.7622 1.5874
1 24.6047 5.5559 1.5874
1 24.6047 4.7622 2.3811
1 23.811 5.5559 2.3811
1 25.3984 4.7622 1.5874
1 26.1921 5.5559 1.5874
1 26.1921 4.7622 2.3811
1 25.3984 5.5559 2.3811
1 26.9858 4.7622 1.5874
1 27.7795 5.5559 1.5874
1 27.7795 4.7622 2.3811
1 26.9858 5.5559 2.3811
1 28.5732 4.7622 1.5874
1 29.3669 5.5559 1.5874
1 29.3669 4.7622 2.3811
1 28.5732 5.5559 2.3811
1 30.1606 4.7622 1.5874
1 30.9543 5.5559 1.5874
1 30.9543 4.7622 2.3811
1 30.1606 5.5559 2.3811
1 23.811 6.3496 1.5874
1 24.6047 7.1433 1.5874
1 24.6047 6.3496 2.3811
1 23.811 7.1433 2.3811
1 25.3984 6.3496 1.5874
1 26.1921 7.1433 1.5874
1 26.1921 6.3496 2.3811
1 25.3984 7.1433 2.3811
1 26.9858 6.3496 1.5874
1 27.7795 7.1433 1.5874
1 27.7795 6.3496 2.3811
1 26.9858 7.1433 2.3811
1 28.5732 6.3496 1.5874
1 29.3669 7.1433 1.5874
1 29.3669 6.3496 2.3811
1 28.5732 7.1433 2.3811
1 30.1606 6.3496 1.5874
1 30.9543 7.1433 1.5874
1 30.9543 6.3496 2.3811
1 30.1606 7.1433 2.3811
1 23.811 7.93701 1.5874
1 24.6047 8.73071 1.5874
1 24.6047 7.93701 2.3811
1 23.811 8.73071 2.3811
1 25.3984 7.93701 1.5874
1 26.1921 8.73071 1.5874
1 26.1921 7.93701 2.3811
1 25.3984 8.73071 2.3811
1 26.9858 7.93701 1.5874
1 27.7795 8.73071 1.5874
1 27.7795 7.93701 2.3811
1 26.9858 8.73071 2.3811
1 28.5732 7.93701 1.5874
1 29.3669 8.73071 1.5874
1 29.3669 7.93701 2.3811
1 28.5732 8.73071 2.3811
1 30.1606 7.93701 1.5874
1 30.9543 8.73071 1.5874
1 30.9543 7.93701 2.3811
1 30.1606 8.73071 2.3811
1 23.811 9.52441 1.5874
1 24.6047 10.3181 1.5874
1 24.6047 9.52441 2.3811
1 23.811 10.3181 2.3811
1 25.3984 9.52441 1.5874
1 26.1921 10.3181 1.5874
1 26.1921 9.52441 2.3811
1 25.3984 10.3181 2.3811
1 26.9858 9.52441 1.5874
1 27.7795 10.3181 1.5874
1 27.7795 9.52441 2.3811
1 26.9858 10.3181 2.3811
1 28.5732 9.52441 1.5874
1 29.3669 10.3181 1.5874
1 29.3669 9.52441 2.3811
1 28.5732 10.3181 2.3811
1 30.1606 9.52441 1.5874
1 30.9543 10.3181 1.5874
1 30.9543 9.52441 2.3811
1 30.1606 10.3181 2.3811
1 23.811 11.1118 1.5874
1 24.6047 11.9055 1.5874
1 24.6047 11.1118 2.3811
1 23.811 11.9055 2.3811
1 25.3984 11.1118 1.5874
1 26.1921 11.9055 1.5874
1 26.1921 11.1118 2.3811
1 25.3984 11.9055 2.3811
1 26.9858 11.1118 1.5874
1 27.7795 11.9055 1.5874
1 27.7795 11.1118 2.3811
1 26.9858 11.9055 2.3811
1 28.5732 11.1118 1.5874
1 29.3669 11.9055 1.5874
1 29.3669 11.1118 2.3811
1 28.5732 11.9055 2.3811
1 30.1606 11.1118 1.5874
1 30.9543 11.9055 1.5874
1 30.9543 11.1118 2.3811
1 30.1606 11.9055 2.3811
1 23.811 12.6992 1.5874
1 24.6047 13.4929 1.5874
1 24.6047 12.6992 2.3811
1 23.811 13.4929 2.3811
1 25.3984 12.6992 1.5874
1 26.1921 13.4929 1.5874
1 26.1921 12.6992 2.3811
1 25.3984 13.4929 2.3811
1 26.9858 12.6992 1.5874
1 27.7795 13.4929 1.5874
1 27.7795 12.6992 2.3811
1 26.9858 13.4929 2.3811
1 28.5732 12.6992 1.5874
1 29.3669 13.4929 1.5874
1 29.3669 12.6992 2.3811
1 28.5732 13.4929 2.3811
1 30.1606 12.6992 1.5874
1 30.9543 13.4929 1.5874
1 30.9543 12.6992 2.3811
1 30.1606 13.4929 2.3811
1 23.811 14.2866 1.5874
1 24.6047 15.0803 1.5874
1 24.6047 14.2866 2.3811
1 23.811 15.0803 2.3811
1 25.3984 14.2866 1.5874
1 26.1921 15.0803 1.5874
1 26.1921 14.2866 2.3811
1 25.3984 15.0803 2.3811
1 26.9858 14.2866 1.5874
1 27.7795 15.0803 1.5874
1 27.7795 14.2866 2.3811
1 26.9858 15.0803 2.3811
1 28.5732 14.2866 1.5874
1 29.3669 15.0803 1.5874
1 29.3669 14.2866 2.3811
1 28.5732 15.0803 2.3811
1 30.1606 14.2866 1.5874
1 30.9543 15.0803 1.5874
1 30.9543 14.2866 2.3811
1 30.1606 15.0803 2.3811
1 23.811 15.874 1.5874
1 24.6047 16.6677 1.5874
1 24.6047 15.874 2.3811
1 23.811 16.6677 2.3811
1 25.3984 15.874 1.5874
1 26.1921 16.6677 1.5874
1 26.1921 15.874 2.3811
1 25.3984 16.6677 2.3811
1 26.9858 15.874 1.5874
1 27.7795 16.6677 1.5874
1 27.7795 15.874 2.3811
1 26.9858 16.6677 2.3811
1 28.5732 15.874 1.5874
1 29.3669 16.6677 1.5874
1 29.3669 15.874 2.3811
1 28.5732 16.6677 2.3811
1 30.1606 15.874 1.5874
1 30.9543 16.6677 1.5874
1 30.9543 15.874 2.3811
1 30.1606 16.6677 2.3811
1 23.811 17.4614 1.5874
1 24.6047 18.2551 1.5874
1 24.6047 17.4614 2.3811
1 23.811 18.2551 2.3811
1 25.3984 17.4614 1.5874
1 26.1921 18.2551 1.5874
1 26.1921 17.4614 2.3811
1 25.3984 18.2551 2.3811
1 26.9858 17.4614 1.5874
1 27.7795 18.2551 1.5874
1 27.7795 17.4614 2.3811
1 26.9858 18.2551 2.3811
1 28.5732 17.4614 1.5874
1 29.3669 18.2551 1.5874
1 29.3669 17.4614 2.3811
1 28.5732 18.2551 2.3811
1 30.1606 17.4614 1.5874
1 30.9543 18.2551 1.5874
1 30.9543 17.4614 2.3811
1 30.1606 18.2551 2.3811
1 23.811 19.0488 1.5874
1 24.6047 19.8425 1.5874
1 24.6047 19.0488 2.3811
1 23.811 19.8425 2.3811
1 25.3984 19.0488 1.5874
1 26.1921 19.8425 1.5874
1 26.1921 19.0488 2.3811
1 25.3984 19.8425 2.3811
1 26.9858 19.0488 1.5874
1 27.7795 19.8425 1.5874
1 27.7795 19.0488 2.3811
1 26.9858 19.8425 2.3811
1 28.5732 19.0488 1.5874
1 29.3669 19.8425 1.5874
1 29.3669 19.0488 2.3811
1 28.5732 19.8425 2.3811
1 30.1606 19.0488 1.5874
1 30.9543 19.8425 1.5874
1 30.9543 19.0488 2.3811
1 30.1606 19.8425 2.3811
1 23.811 20.6362 1.5874
1 24.6047 21.4299 1.5874
1 24.6047 20.6362 2.3811
1 23.811 21.4299 2.3811
1 25.3984 20.6362 1.5874
1 26.1921 21.4299 1.5874
1 26.1921 20.6362 2.3811
1 25.3984 21.4299 2.3811
1 26.9858 20.6362 1.5874
1 27.7795 21.4299 1.5874
1 27.7795 20.6362 2.3811
1 26.9858 21.4299 2.3811
1 28.5732 20.6362 1.5874
1 29.3669 21.4299 1.5874
1 29.3669 20.6362 2.3811
1 28.5732 21.4299 2.3811
1 30.1606 20.6362 1.5874
1 30.9543 21.4299 1.5874
1 30.9543 20.6362 2.3811
1 30.1606 21.4299 2.3811
1 23.811 22.2236 1.5874
1 24.6047 23.0173 1.5874
1 24.6047 22.2236 2.3811
1 23.811 23.0173 2.3811
1 25.3984 22.2236 1.5874
1 26.1921 23.0173 1.5874
1 26.1921 22.2236 2.3811
1 25.3984 23.0173 2.3811
1 26.9858 22.2236 1.5874
1 27.7795 23.0173 1.5874
1 27.7795 22.2236 2.3811
1 26.9858 23.0173 2.3811
1 28.5732 22.2236 1.5874
1 29.3669 23.0173 1.5874
1 29.3669 22.2236 2.3811
1 28.5732 23.0173 2.3811
1 30.1606 22.2236 1.5874
1 30.9543 23.0173 1.5874
1 30.9543 22.2236 2.3811
1 30.1606 23.0173 2.3811
1 23.811 23.811 1.5874
1 24.6047 24.6047 1.5874
1 24.6047 23.811 2.3811
1 23.811 24.6047 2.3811
1 25.3984 23.811 1.5874
1 26.1921 24.6047 1.5874
1 26.1921 23.811 2.3811
1 25.3984 24.6047 2.3811
1 26.9858 23.811 1.5874
1 27.7795 24.6047 1.5874
1 27.7795 23.811 2.3811
1 26.9858 24.6047 2.3811
1 28.5732 23.811 1.5874
1 29.3669 24.6047 1.5874
1 29.3669 23.811 2.3811
1 28.5732 24.6047 2.3811
1 30.1606 23.811 1.5874
1 30.9543 24.6047 1.5874
1 30.9543 23.811 2.3811
1 30.1606 24.6047 2.3811
1 23.811 0 3.1748
1 24.6047 0.793701 3.1748
1 24.6047 0 3.9685
1 23.811 0.793701 3.9685
1 25.3984 0 3.1748
1 26.1921 0.793701 3.1748
1 26.1921 0 3.9685
1 25.3984 0.793701 3.9685
1 26.9858 0 3.1748
1 27.7795 0.793701 3.1748
1 27.7795 0 3.9685
1 26.9858 0.793701 3.9685
1 28.5732 0 3.1748
1 29.3669 0.793701 3.1748
1 29.3669 0 3.9685
1 28.5732 0.793701 3.9685
1 30.1606 0 3.1748
1 30.9543 0.793701 3.1748
1 30.9543 0 3.9685
1 30.1606 0.793701 3.9685
1 23.811 1.5874 3.1748
1 24.6047 2.3811 3.1748
1 24.6047 1.5874 3.9685
1 23.811 2.3811 3.9685
1 25.3984 1.5874 3.1748
1 26.1921 2.3811 3.1748
1 26.1921 1.5874 3.9685
1 25.3984 2.3811 3.9685
1 26.9858 1.5874 3.1748
1 27.7795 2.3811 3.1748
1 27.7795 1.5874 3.9685
1 26.9858 2.3811 3.9685
1 28.5732 1.5874 3.1748
1 29.3669 2.3811 3.1748
1 29.3669 1.5874 3.9685
1 28.5732 2.3811 3.9685
1 30.1606 1.5874 3.1748
1 30.9543 2.3811 3.1748
1 30.9543 1.5874 3.9685
1 30.1606 2.3811 3.9685
1 23.811 3.1748 3.1748
1 24.6047 3.9685 3.1748
1 24.6047 3.1748 3.9685
1 23.811 3.9685 3.9685
1 25.3984 3.1748 3.1748
1 26.1921 3.9685 3.1748
1 26.1921 3.1748 3.9685
1 25.3984 3.9685 3.9685
1 26.9858 3.1748 3.1748
1 27.7795 3.9685 3.1748
1 27.7795 3.1748 3.9685
1 26.9858 3.9685 3.9685
1 28.5732 3.1748 3.1748
1 29.3669 3.9685 3.1748
1 29.3669 3.1748 3.9685
1 28.5732 3.9685 3.9685
1 30.1606 3.1748 3.1748
1 30.9543 3.9685 3.1748
1 30.9543 3.1748 3.9685
1 30.1606 3.9685 3.9685
1 23.811 4.7622 3.1748
1 24.6047 5.5559 3.1748
1 24.6047 4.7622 3.9685
1 23.811 5.5559 3.9685
1 25.3984 4.7622 3.1748
1 26.1921 5.5559 3.1748
1 26.1921 4.7622 3.9685
1 25.3984 5.5559 3.9685
1 26.9858 4.7622 3.1748
1 27.7795 5.5559 3.1748
1 27.7795 4.7622 3.9685
1 26.9858 5.5559 3.9685
1 28.5732 4.7622 3.1748
1 29.3669 5.5559 3.1748
1 29.3669 4.7622 3.9685
1 28.5732 5.5559 3.9685
1 30.1606 4.7622 3.1748
1 30.9543 5.5559 3.1748
1 30.9543 4.7622 3.9685
1 30.1606 5.5559 3.9685
1 23.811 6.3496 3.1748
1 24.6047 7.1433 3.1748
1 24.6047 6.3496 3.9685
1 23.811 7.1433 3.9685
1 25.3984 6.3496 3.1748
1 26.1921 7.1433 3.1748
1 26.1921 6.3496 3.9685
1 25.3984 7.1433 3.9685
1 26.9858 6.3496 3.1748
1 27.7795 7.1433 3.1748
1 27.7795 6.3496 3.9685
1 26.9858 7.1433 3.9685
1 28.5732 6.3496 3.1748
1 29.3669 7.1433 3.1748
1 29.3669 6.3496 3.9685
1 28.5732 7.1433 3.9685
1 30.1606 6.3496 3.1748
1 30.9543 7.1433 3.1748
1 30.9543 6.3496 3.9685
1 30.1606 7.1433 3.9685
1 23.811 7.93701 3.1748
1 24.6047 8.73071 3.1748
1 24.6047 7.93701 3.9685
1 23.811 8.73071 3.9685
1 25.3984 7.93701 3.1748
1 26.1921 8.73071 3.1748
1 26.1921 7.93701 3.9685
1 25.3984 8.73071 3.9685
1 26.9858 7.93701 3.1748
1 27.7795 8.73071 3.1748
1 27.7795 7.93701 3.9685
1 26.9858 8.73071 3.9685
1 28.5732 7.93701 3.1748
1 29.3669 8.73071 3.1748
1 29.3669 7.93701 3.9685
1 28.5732 8.73071 3.9685
1 30.1606 7.93701 3.1748
1 30.9543 8.73071 3.1748
1 30.9543 7.93701 3.9685
1 30.1606 8.73071 3.9685
1 23.811 9.52441 3.1748
1 24.6047 10.3181 3.1748
1 24.6047 9.52441 3.9685
1 23.811 10.3181 3.9685
1 25.3984 9.52441 3.1748
1 26.1921 10.3181 3.1748
1 26.1921 9.52441 3.9685
1 25.3984 10.3181 3.9685
1 26.9858 9.52441 3.1748
1 27.7795 10.3181 3.1748
1 27.7795 9.52441 3.9685
1 26.9858 10.3181 3.9685
1 28.5732 9.52441 3.1748
1 29.3669 10.3181 3.1748
1 29.3669 9.52441 3.9685
1 28.5732 10.3181 3.9685
1 30.1606 9.52441 3.1748
1 30.9543 10.3181 3.1748
1 30.9543 9.52441 3.9685
1 30.1606 10.3181 3.9685
1 23.811 11.1118 3.1748
1 24.6047 11.9055 3.1748
1 24.6047 11.1118 3.9685
1 23.811 11.9055 3.9685
1 25.3984 11.1118 3.1748
1 26.1921 11.9055 3.1748
1 26.1921 11.1118 3.9685
1 25.3984 11.9055 3.9685
1 26.9858 11.1118 3.1748
1 27.7795 11.9055 3.1748
1 27.7795 11.1118 3.9685
1 26.9858 11.9055 3.9685
1 28.5732 11.1118 3.1748
1 29.3669 11.9055 3.1748
1 29.3669 11.1118 3.9685
1 28.5732 11.9055 3.9685
1 30.1606 11.1118 3.1748
1 30.9543 11.9055 3.1748
1 30.9543 11.1118 3.9685
1 30.1606 11.9055 3.9685
1 23.811 12.6992 3.1748
1 24.6047 13.4929 3.1748
1 24.6047 12.6992 3.9685
1 23.811 13.4929 3.9685
1 25.3984 12.6992 3.1748
1 26.1921 13.4929 3.1748
1 26.1921 12.6992 3.9685
1 25.3984 13.4929 3.9685
1 26.9858 12.6992 3.1748
1 27.7795 13.4929 3.1748
1 27.7795 12.6992 3.9685
1 26.9858 13.4929 3.9685
1 28.5732 12.6992 3.1748
1 29.3669 13.4929 3.1748
1 29.3669 12.6992 3.9685
1 28.5732 13.4929 3.9685
1 30.1606 12.6992 3.1748
1 30.9543 13.4929 3.1748
1 30.9543 12.6992 3.9685
1 30.1606 13.4929 3.9685
1 23.811 14.2866 3.1748
1 24.6047 15.0803 3.1748
1 24.6047 14.2866 3.9685
1 23.811 15.0803 3.9685
1 25.3984 14.2866 3.1748
1 26.1921 15.0803 3.1748
1 26.1921 14.2866 3.9685
1 25.3984 15.0803 3.9685
1 26.9858 14.2866 3.1748
1 27.7795 15.0803 3.1748
1 27.7795 14.2866 3.9685
1 26.9858 15.0803 3.9685
1 28.5732 14.2866 3.1748
1 29.3669 15.0803 3.1748
1 29.3669 14.2866 3.9685
1 28.5732 15.0803 3.9685
1 30.1606 14.2866 3.1748
1 30.9543 15.0803 3.1748
1 30.9543 14.2866 3.9685
1 30.1606 15.0803 3.9685
1 23.811 15.874 3.1748
1 24.6047 16.6677 3.1748
1 24.6047 15.874 3.9685
1 23.811 16.6677 3.9685
1 25.3984 15.874 3.1748
1 26.1921 16.6677 3.1748
1 26.1921 15.874 3.9685
1 25.3984 16.6677 3.9685
1 26.9858 15.874 3.1748
1 27.7795 16.6677 3.1748
1 27.7795 15.874 3.9685
1 26.9858 16.6677 3.9685
1 28.5732 15.874 3.1748
1 29.3669 16.6677 3.1748
1 29.3669 15.874 3.9685
1 28.5732 16.6677 3.9685
1 30.1606 15.874 3.1748
1 30.9543 16.6677 3.1748
1 30.9543 15.874 3.9685
1 30.1606 16.6677 3.9685
1 23.811 17.4614 3.1748
1 24.6047 18.2551 3.1748
1 24.6047 17.4614 3.9685
1 23.811 18.2551 3.9685
1 25.3984 17.4614 3.1748
1 26.1921 18.2551 3.1748
1 26.1921 17.4614 3.9685
1 25.3984 18.2551 3.9685
1 26.9858 17.4614 3.1748
1 27.7795 18.2551 3.1748
1 27.7795 17.4614 3.9685
1 26.9858 18.2551 3.9685
1 28.5732 17.4614 3.1748
1 29.3669 18.2551 3.1748
1 29.3669 17.4614 3.9685
1 28.5732 18.2551 3.9685
1 30.1606 17.4614 3.1748
1 30.9543 18.2551 3.1748
1 30.9543 17.4614 3.9685
1 30.1606 18.2551 3.9685
1 23.811 19.0488 3.1748
1 24.6047 19.8425 3.1748
1 24.6047 19.0488 3.9685
1 23.811 19.8425 3.9685
1 25.3984 19.0488 3.1748
1 26.1921 19.8425 3.1748
1 26.1921 19.0488 3.9685
1 25.3984 19.8425 3.9685
1 26.9858 19.0488 3.1748
1 27.7795 19.8425 3.1748
1 27.7795 19.0488 3.9685
1 26.9858 19.8425 3.9685
1 28.5732 19.0488 3.1748
1 29.3669 19.8425 3.1748
1 29.3669 19.0488 3.9685
1 28.5732 19.8425 3.9685
1 30.1606 19.0488 3.1748
1 30.9543 19.8425 3.1748
1 30.9543 19.0488 3.9685
1 30.1606 19.8425 3.9685
1 23.811 20.6362 3.1748
1 24.6047 21.4299 3.1748
1 24.6047 20.6362 3.9685
1 23.811 21.4299 3.9685
1 25.3984 20.6362 3.1748
1 26.1921 21.4299 3.1748
1 26.1921 20.6362 3.9685
1 25.3984 21.4299 3.9685
1 26.9858 20.6362 3.1748
1 27.7795 21.4299 3.1748
1 27.7795 20.6362 3.9685
1 26.9858 21.4299 3.9685
1 28.5732 20.6362 3.1748
1 29.3669 21.4299 3.1748
1 29.3669 20.6362 3.9685
1 28.5732 21.4299 3.9685
1 30.1606 20.6362 3.1748
1 30.9543 21.4299 3.1748
1 30.9543 20.6362 3.9685
1 30.1606 21.4299 3.9685
1 23.811 22.2236 3.1748
1 24.6047 23.0173 3.1748
1 24.6047 22.2236 3.9685
1 23.811 23.0173 3.9685
1 25.3984 22.2236 3.1748
1 26.1921 23.0173 3.1748
1 26.1921 22.2236 3.9685
1 25.3984 23.0173 3.9685
1 26.9858 22.2236 3.1748
1 27.7795 23.0173 3.1748
1 27.7795 22.2236 3.9685
1 26.9858 23.0173 3.9685
1 28.5732 22.2236 3.1748
1 29.3669 23.0173 3.1748
1 29.3669 22.2236 3.9685
1 28.5732 23.0173 3.9685
1 30.1606 22.2236 3.1748
1 30.9543 23.0173 3.1748
1 30.9543 22.2236 3.9685
1 30.1606 23.0173 3.9685
1 23.811 23.811 3.1748
1 24.6047 24.6047 3.1748
1 24.6047 23.811 3.9685
1 23.811 24.6047 3.9685
1 25.3984 23.811 3.1748
1 26.1921 24.6047 3.1748
1 26.1921 23.811 3.9685
1 25.3984 24.6047 3.9685
1 26.9858 23.811 3.1748
1 27.7795 24.6047 3.1748
1 27.7795 23.811 3.9685
1 26.9858 24.6047 3.9685
1 28.5732 23.811 3.1748
1 29.3669 24.6047 3.1748
1 29.3669 23.811 3.9685
1 28.5732 24.6047 3.9685
1 30.1606 23.811 3.1748
1 30.9543 24.6047 3.1748
1 30.9543 23.811 3.9685
1 30.1606 24.6047 3.9685
1 23.811 0 4.7622
1 24.6047 0.793701 4.7622
1 24.6047 0 5.5559
1 23.811 0.793701 5.5559
1 25.3984 0 4.7622
1 26.1921 0.793701 4.7622
1 26.1921 0 5.5559
1 25.3984 0.793701 5.5559
1 26.9858 0 4.7622
1 27.7795 0.793701 4.7622
1 27.7795 0 5.5559
1 26.9858 0.793701 5.5559
1 28.5732 0 4.7622
1 29.3669 0.793701 4.7622
1 29.3669 0 5.5559
1 28.5732 0.793701 5.5559
1 30.1606 0 4.7622
1 30.9543 0.793701 4.7622
1 30.9543 0 5.5559
1 30.1606 0.793701 5.5559
1 23.811 1.5874 4.7622
1 24.6047 2.3811 4.7622
1 24.6047 1.5874 5.5559
1 23.811 2.3811 5.5559
1 25.3984 1.5874 4.7622
1 26.1921 2.3811 4.7622
1 26.1921 1.5874 5.5559
1 25.3984 2.3811 5.5559
1 26.9858 1.5874 4.7622
1 27.7795 2.3811 4.7622
1 27.7795 1.5874 5.5559
1 26.9858 2.3811 5.5559
1 28.5732 1.5874 4.7622
1 29.3669 2.3811 4.7622
1 29.3669 1.5874 5.5559
1 28.5732 2.3811 5.5559
1 30.1606 1.5874 4.7622
1 30.9543 2.3811 4.7622
1 30.9543 1.5874 5.5559
1 30.1606 2.3811 5.5559
1 23.811 3.1748 4.7622
1 24.6047 3.9685 4.7622
1 24.6047 3.1748 5.5559
1 23.811 3.9685 5.5559
1 25.3984 3.1748 4.7622
1 26.1921 3.9685 4.7622
1 26.1921 3.1748 5.5559
1 25.3984 3.9685 5.5559
1 26.9858 3.1748 4.7622
1 27.7795 3.9685 4.7622
1 27.7795 3.1748 5.5559
1 26.9858 3.9685 5.5559
1 28.5732 3.1748 4.7622
1 29.3669 3.9685 4.7622
1 29.3669 3.1748 5.5559
1 28.5732 3.9685 5.5559
1 30.1606 3.1748 4.7622
1 30.9543 3.9685 4.7622
1 30.9543 3.1748 5.5559
1 30.1606 3.9685 5.5559
1 23.811 4.7622 4.7622
1 24.6047 5.5559 4.7622
1 24.6047 4.7622 5.5559
1 23.811 5.5559 5.5559
1 25.3984 4.7622 4.7622
1 26.1921 5.5559 4.7622
1 26.1921 4.7622 5.5559
1 25.3984 5.5559 5.5559
1 26.9858 4.7622 4.7622
1 27.7795 5.5559 4.7622
1 27.7795 4.7622 5.5559
1 26.9858 5.5559 5.5559
1 28.5732 4.7622 4.7622
1 29.3669 5.5559 4.7622
1 29.3669 4.7622 5.5559
1 28.5732 5.5559 5.5559
1 30.1606 4.7622 4.7622
1 30.9543 5.5559 4.7622
1 30.9543 4.7622 5.5559
1 30.1606 5.5559 5.5559
1 23.811 6.3496 4.7622
1 24.6047 7.1433 4.7622
1 24.6047 6.3496 5.5559
1 23.811 7.1433 5.5559
1 25.3984 6.3496 4.7622
1 26.1921 7.1433 4.7622
1 26.1921 6.3496 5.5559
1 25.3984 7.1433 5.5559
1 26.9858 6.3496 4.7622
1 27.7795 7.1433 4.7622
1 27.7795 6.3496 5.5559
1 26.9858 7.1433 5.5559
1 28.5732 6.3496 4.7622
1 29.3669 7.1433 4.7622
1 29.3669 6.3496 5.5559
1 28.5732 7.1433 5.5559
1 30.1606 6.3496 4.7622
1 30.9543 7.1433 4.7622
1 30.9543 6.3496 5.5559
1 30.1606 7.1433 5.5559
1 23.811 7.93701 4.7622
1 24.6047 8.73071 4.7622
1 24.6047 7.93701 5.5559
1 23.811 8.73071 5.5559
1 25.3984 7.93701 4.7622
1 26.1921 8.73071 4.7622
1 26.1921 7.93701 5.5559
1 25.3984 8.73071 5.5559
1 26.9858 7.93701 4.7622
1 27.7795 8.73071 4.7622
1 27.7795 7.93701 5.5559
1 26.9858 8.73071 5.5559
1 28.5732 7.93701 4.7622
1 29.3669 8.73071 4.7622
1 29.3669 7.93701 5.5559
1 28.5732 8.73071 5.5559
1 30.1606 7.93701 4.7622
1 30.9543 8.73071 4.7622
1 30.9543 7.93701 5.5559
1 30.1606 8.73071 5.5559
1 23.811 9.52441 4.7622
1 24.6047 10.3181 4.7622
1 24.6047 9.52441 5.5559
1 23.811 10.3181 5.5559
1 25.3984 9.52441 4.7622
1 26.1921 10.3181 4.7622
1 26.1921 9.52441 5.5559
1 25.3984 10.3181 5.5559
1 26.9858 9.52441 4.7622
1 27.7795 10.3181 4.7622
1 27.7795 9.52441 5.5559
1 26.9858 10.3181 5.5559
1 28.5732 9.52441 4.7622
1 29.3669 10.3181 4.7622
1 29.3669 9.52441 5.5559
1 28.5732 10.3181 5.5559
1 30.1606 9.52441 4.7622
1 30.9543 10.3181 4.7622
1 30.9543 9.52441 5.5559
1 30.1606 10.3181 5.5559
1 23.811 11.1118 4.7622
1 24.6047 11.9055 4.7622
1 24.6047 11.1118 5.5559
1 23.811 11.9055 5.5559
1 25.3984 11.1118 4.7622
1 26.1921 11.9055 4.7622
1 26.1921 11.1118 5.5559
1 25.3984 11.9055 5.5559
1 26.9858 11.1118 4.7622
1 27.7795 11.9055 4.7622
1 27.7795 11.1118 5.5559
1 26.9858 11.9055 5.5559
1 28.5732 11.1118 4.7622
1 29.3669 11.9055 4.7622
1 29.3669 11.1118 5.5559
1 28.5732 11.9055 5.5559
1 30.1606 11.1118 4.7622
1 30.9543 11.9055 4.7622
1 30.9543 11.1118 5.5559
1 30.1606 11.9055 5.5559
1 23.811 12.6992 4.7622
1 24.6047 13.4929 4.7622
1 24.6047 12.6992 5.5559
1 23.811 13.4929 5.5559
1 25.3984 12.6992 4.7622
1 26.1921 13.4929 4.7622
1 26.1921 12.6992 5.5559
1 25.3984 13.4929 5.5559
1 26.9858 12.6992 4.7622
1 27.7795 13.4929 4.7622
1 27.7795 12.6992 5.5559
1 26.9858 13.4929 5.5559
1 28.5732 12.6992 4.7622
1 29.3669 13.4929 4.7622
1 29.3669 12.6992 5.5559
1 28.5732 13.4929 5.5559
1 30.1606 12.6992 4.7622
1 30.9543 13.4929 4.7622
1 30.9543 12.6992 5.5559
1 30.1606 13.4929 5.5559
1 23.811 14.2866 4.7622
1 24.6047 15.0803 4.7622
1 24.6047 14.2866 5.5559
1 23.811 15.0803 5.5559
1 25.3984 14.2866 4.7622
1 26.1921 15.0803 4.7622
1 26.1921 14.2866 5.5559
1 25.3984 15.0803 5.5559
1 26.9858 14.2866 4.7622
1 27.7795 15.0803 4.7622
1 27.7795 14.2866 5.5559
1 26.9858 15.0803 5.5559
1 28.5732 14.2866 4.7622
1 29.3669 15.0803 4.7622
1 29.3669 14.2866 5.5559
1 28.5732 15.0803 5.5559
1 30.1606 14.2866 4.7622
1 30.9543 15.0803 4.7622
1 30.9543 14.2866 5.5559
1 30.1606 15.0803 5.5559
1 23.811 15.874 4.7622
1 24.6047 16.6677 4.7622
1 24.6047 15.874 5.5559
1 23.811 16.6677 5.5559
1 25.3984 15.874 4.7622
1 26.1921 16.6677 4.7622
1 26.1921 15.874 5.5559
1 25.3984 16.6677 5.5559
1 26.9858 15.874 4.7622
1 27.7795 16.6677 4.7622
1 27.7795 15.874 5.5559
1 26.9858 16.6677 5.5559
1 28.5732 15.874 4.7622
1 29.3669 16.6677 4.7622
1 29.3669 15.874 5.5559
1 28.5732 16.6677 5.5559
1 30.1606 15.874 4.7622
1 30.9543 16.6677 4.7622
1 30.9543 15.874 5.5559
1 30.1606 16.6677 5.5559
1 23.811 17.4614 4.7622
1 24.6047 18.2551 4.7622
1 24.6047 17.4614 5.5559
1 23.811 18.2551 5.5559
1 25.3984 17.4614 4.7622
1 26.1921 18.2551 4.7622
1 26.1921 17.4614 5.5559
1 25.3984 18.2551 5.5559
1 26.9858 17.4614 4.7622
1 27.7795 18.2551 4.7622
1 27.7795 17.4614 5.5559
1 26.9858 18.2551 5.5559
1 28.5732 17.4614 4.7622
1 29.3669 18.2551 4.7622
1 29.3669 17.4614 5.5559
1 28.5732 18.2551 5.5559
1 30.1606 17.4614 4.7622
1 30.9543 18.2551 4.7622
1 30.9543 17.4614 5.5559
1 30.1606 18.2551 5.5559
1 23.811 19.0488 4.7622
1 24.6047 19.8425 4.7622
1 24.6047 19.0488 5.5559
1 23.811 19.8425 5.5559
1 25.3984 19.0488 4.7622
1 26.1921 19.8425 4.7622
1 26.1921 19.0488 5.5559
1 25.3984 19.8425 5.5559
1 26.9858 19.0488 4.7622
1 27.7795 19.8425 4.7622
1 27.7795 19.0488 5.5559
1 26.9858 19.8425 5.5559
1 28.5732 19.0488 4.7622
1 29.3669 19.8425 4.7622
1 29.3669 19.0488 5.5559
1 28.5732 19.8425 5.5559
1 30.1606 19.0488 4.7622
1 30.9543 19.8425 4.7622
1 30.9543 19.0488 5.5559
1 30.1606 19.8425 5.5559
1 23.811 20.6362 4.7622
1 24.6047 21.4299 4.7622
1 24.6047 20.6362 5.5559
1 23.811 21.4299 5.5559
1 25.3984 20.6362 4.7622
1 26.1921 21.4299 4.7622
1 26.1921 20.6362 5.5559
1 25.3984 21.4299 5.5559
1 26.9858 20.6362 4.7622
1 27.7795 21.4299 4.7622
1 27.7795 20.6362 5.5559
1 26.9858 21.4299 5.5559
1 28.5732 20.6362 4.7622
1 29.3669 21.4299 4.7622
1 29.3669 20.6362 5.5559
1 28.5732 21.4299 5.5559
1 30.1606 20.6362 4.7622
1 30.9543 21.4299 4.7622
1 30.9543 20.6362 5.5559
1 30.1606 21.4299 5.5559
1 23.811 22.2236 4.7622
1 24.6047 23.0173 4.7622
1 24.6047 22.2236 5.5559
1 23.811 23.0173 5.5559
1 25.3984 22.2236 4.7622
1 26.1921 23.0173 4.7622